created by fftool

8722 atoms
4290 bonds
1980 angles
4 atom types
1 bond types
1 angle types
   -17.153631885    18.003017118 xlo xhi
   -17.855467919    17.553981017 ylo yhi
   -34.618715923    34.618715923 zlo zhi

Masses

   1   39.098  # K
   2    1.008  # Hw
   3   15.999  # Ow
   4   12.011
   
Bond Coeffs

   1   517.630258     1.000000  # Ow-Hw

Angle Coeffs

   1    37.950526   109.470000  # Hw-Ow-Hw

Atoms

      1       1    1   1.000000 -5.532410e-01 -1.284802e+01  3.355970e+00  # K K+
      2       2    1   1.000000  1.487700e+01 -5.567400e-02  2.507063e+01  # K K+
      3       3    1   1.000000  6.957241e+00 -1.562700e-01 -7.269707e+00  # K K+
      4       4    1   1.000000  1.404265e+01  7.131910e-01  9.718111e+00  # K K+
      5       5    1   1.000000 -3.700377e+00 -1.348159e+00 -6.408815e+00  # K K+
      6       6    1   1.000000  1.713972e+00  4.198259e+00 -9.836230e-01  # K K+
      7       7    1   1.000000  5.332917e+00 -1.966755e+00  1.491699e+01  # K K+
      8       8    1   1.000000 -1.102729e+00 -8.768364e+00  5.754760e-01  # K K+
      9       9    1   1.000000  4.662123e+00 -1.113326e+01  3.001265e+01  # K K+
     10      10    1   1.000000  2.884330e-01 -7.643273e+00 -6.432373e+00  # K K+
     11      11    1   1.000000  1.389793e+01 -5.958905e+00 -2.270711e+01  # K K+
     12      12    1   1.000000  1.500016e+01 -3.193410e-01  1.930565e+01  # K K+
     13      13    1   1.000000  1.501041e+01  1.499644e+01  2.433832e+01  # K K+
     14      14    1   1.000000  4.889110e-01  1.226787e+01  2.774951e+01  # K K+
     15      15    1   1.000000  1.293379e+01  1.166215e+00  2.377435e+01  # K K+
     16      16    1   1.000000  1.166310e+00  5.739530e-01  2.506556e+00  # K K+
     17      17    1   1.000000 -5.632339e+00 -1.373832e+01 -2.132580e+01  # K K+
     18      18    1   1.000000  2.175950e+00  1.011965e+01 -9.058986e+00  # K K+
     19      19    1   1.000000  1.371793e+01  9.901278e+00  7.215634e+00  # K K+
     20      20    1   1.000000  1.259293e+01 -1.031119e+01 -2.149726e+01  # K K+
     21      21    1   1.000000 -2.529961e+00  6.939701e+00  5.166006e+00  # K K+
     22      22    1   1.000000 -6.839068e+00 -1.167149e+01 -2.033636e+01  # K K+
     23      23    1   1.000000  7.044330e-01 -8.557878e+00 -2.472530e+01  # K K+
     24      24    1   1.000000  1.177497e+01 -1.489736e+01  1.320006e+01  # K K+
     25      25    1   1.000000  1.002631e+01  2.300091e+00  2.064767e+01  # K K+
     26      26    1   1.000000 -8.171644e+00  1.314803e+01  1.056281e+01  # K K+
     27      27    1   1.000000 -9.926209e+00 -6.844275e+00  1.527446e+01  # K K+
     28      28    1   1.000000 -7.444110e+00 -9.154142e+00 -2.731430e+00  # K K+
     29      29    1   1.000000 -2.665293e+00  2.307139e+00 -3.486525e+00  # K K+
     30      30    1   1.000000  1.234377e+01  1.771506e+00  2.142198e+01  # K K+
     31      31    1   1.000000  4.417052e+00  3.670290e-01  2.162378e+00  # K K+
     32      32    1   1.000000  1.251635e+01  8.304832e+00 -8.975060e-01  # K K+
     33      33    1   1.000000  4.028605e+00 -7.875112e+00 -5.792849e+00  # K K+
     34      34    1   1.000000 -3.056054e+00  8.940449e+00 -1.575122e+01  # K K+
     35      35    1   1.000000  6.438274e+00 -9.186062e+00  2.331982e+01  # K K+
     36      36    1   1.000000 -9.564520e+00  1.500866e+01 -1.028003e+01  # K K+
     37      37    1   1.000000  1.425456e+01 -2.993181e+00 -3.058496e+00  # K K+
     38      38    1   1.000000  1.284361e+01 -1.308787e+01  4.706991e+00  # K K+
     39      39    1   1.000000  3.412687e+00 -9.075424e+00 -1.141221e+01  # K K+
     40      40    1   1.000000 -3.096331e+00 -7.723915e+00 -2.065373e+00  # K K+
     41      41    1   1.000000 -7.226376e+00  4.230046e+00  2.785572e+01  # K K+
     42      42    1   1.000000  1.193242e+01 -5.996697e+00 -2.425131e+01  # K K+
     43      43    1   1.000000 -2.281880e+00  8.022064e+00 -5.357229e+00  # K K+
     44      44    1   1.000000  8.137402e+00  6.541267e+00 -1.088166e+01  # K K+
     45      45    1   1.000000  4.068497e+00 -7.942301e+00 -2.368784e+01  # K K+
     46      46    1   1.000000  7.020590e-01 -7.488700e+00  8.091199e+00  # K K+
     47      47    1   1.000000  2.711420e-01 -1.283830e+01  1.449511e+01  # K K+
     48      48    1   1.000000  7.939911e+00  5.365660e+00 -5.250213e+00  # K K+
     49      49    1   1.000000  2.993676e+00  1.513394e+00 -2.341822e+01  # K K+
     50      50    1   1.000000 -9.773541e+00 -1.198813e+01  8.228381e+00  # K K+
     51      51    1   1.000000  2.282514e+00 -1.355929e+01 -3.112850e+00  # K K+
     52      52    1   1.000000 -9.472300e-01 -1.130643e+01 -5.453497e+00  # K K+
     53      53    1   1.000000  6.448914e+00  1.258746e+01 -2.565619e+01  # K K+
     54      54    1   1.000000 -7.124504e+00  2.797205e+00 -3.152240e+00  # K K+
     55      55    1   1.000000  6.494104e+00 -4.315068e+00 -1.441067e+01  # K K+
     56      56    1   1.000000 -1.500477e+01  7.506165e+00 -1.453981e+01  # K K+
     57      57    1   1.000000  2.339309e+00 -1.011883e+01 -1.731378e+01  # K K+
     58      58    1   1.000000  3.847809e+00  1.269726e+01  2.448751e+01  # K K+
     59      59    1   1.000000  2.902161e+00 -1.194168e+00 -2.443918e+01  # K K+
     60      60    1   1.000000  1.233360e+01  1.090172e+01 -2.589495e+01  # K K+
     61      61    1   1.000000  9.704594e+00  4.772306e+00  1.588860e+01  # K K+
     62      62    1   1.000000 -1.230393e+01 -8.914500e-01 -1.177324e+01  # K K+
     63      63    1   1.000000 -1.188191e+01 -5.600890e+00  2.062515e+01  # K K+
     64      64    1   1.000000  1.186247e+01 -5.190957e+00 -1.770817e+01  # K K+
     65      65    1   1.000000 -1.476354e+01  7.188746e+00 -3.851936e+00  # K K+
     66      66    1   1.000000  1.172361e+01 -8.524040e+00  2.124120e+01  # K K+
     67      67    1   1.000000  8.555550e-01  1.289309e+01  1.113206e+01  # K K+
     68      68    1   1.000000  9.023679e+00  1.081575e+01  1.202341e+00  # K K+
     69      69    1   1.000000 -1.815328e+00  9.192638e+00 -1.359575e+01  # K K+
     70      70    1   1.000000 -7.772246e+00 -1.397325e+01 -2.005545e+01  # K K+
     71      71    1   1.000000 -3.647682e+00  1.500279e+01 -2.569287e+01  # K K+
     72      72    1   1.000000 -1.498105e+01  1.177001e+01 -5.616944e+00  # K K+
     73      73    1   1.000000  1.267665e+00  9.748604e+00  1.819417e+01  # K K+
     74      74    1   1.000000 -1.894098e+00  1.458849e+01 -1.758092e+01  # K K+
     75      75    1   1.000000  4.086866e+00  1.907238e+00  7.439338e+00  # K K+
     76      76    1   1.000000  4.731986e+00  1.119825e+01  1.051281e+01  # K K+
     77      77    1   1.000000  5.201336e+00 -5.899626e+00 -1.297271e+01  # K K+
     78      78    1   1.000000  1.215617e+01 -3.986364e+00 -3.985787e+00  # K K+
     79      79    1   1.000000 -1.826665e+00  7.660317e+00 -1.751141e+01  # K K+
     80      80    1   1.000000  3.180398e+00  8.267558e+00  2.221730e+01  # K K+
     81      81    1   1.000000  1.903490e-01  4.736311e+00  8.817315e+00  # K K+
     82      82    1   1.000000  7.119716e+00 -1.331891e+01  3.220630e-01  # K K+
     83      83    1   1.000000  5.812075e+00 -1.481878e+01 -2.067307e+01  # K K+
     84      84    1   1.000000  6.181138e+00 -2.266352e+00  2.169596e+01  # K K+
     85      85    1   1.000000 -5.165380e+00 -1.392497e+01 -2.839298e+00  # K K+
     86      86    1   1.000000  2.863594e+00 -4.602036e+00  1.570081e+00  # K K+
     87      87    1   1.000000  2.488907e+00 -1.068259e+01 -8.696947e+00  # K K+
     88      88    1   1.000000 -9.502423e+00 -1.325993e+01 -2.670117e+01  # K K+
     89      89    1   1.000000 -7.274498e+00  1.083735e+00 -2.275157e+01  # K K+
     90      90    1   1.000000  1.385807e+01 -6.872860e+00 -2.562919e+01  # K K+
     91      91    1   1.000000 -9.422394e+00  4.996921e+00 -1.690030e+01  # K K+
     92      92    1   1.000000 -7.790834e+00 -1.500733e+01  1.585009e+01  # K K+
     93      93    1   1.000000  1.135633e+00 -9.257952e+00  1.575576e+00  # K K+
     94      94    1   1.000000  9.147258e+00  1.272692e+01  3.001379e+01  # K K+
     95      95    1   1.000000  3.430213e+00 -9.623824e+00  1.664702e+01  # K K+
     96      96    1   1.000000  8.369716e+00  3.574552e+00 -1.851909e+01  # K K+
     97      97    1   1.000000 -5.828152e+00 -4.666044e+00 -2.116898e+01  # K K+
     98      98    1   1.000000  9.074154e+00  1.217289e+01 -2.120718e+01  # K K+
     99      99    1   1.000000  4.281741e+00 -9.397701e+00 -2.600231e+01  # K K+
    100     100    1   1.000000  1.014942e+01  6.536514e+00  2.531376e+01  # K K+
    101     101    1   1.000000 -4.428918e+00  7.807022e+00 -6.619189e+00  # K K+
    102     102    1   1.000000  9.550120e-01 -9.325028e+00  1.683157e+01  # K K+
    103     103    1   1.000000 -1.189177e+01 -2.440491e+00  2.525342e+01  # K K+
    104     104    1   1.000000 -9.490357e+00  3.580105e+00  1.644829e+01  # K K+
    105     105    1   1.000000 -1.251793e+01 -1.442909e+00 -5.683880e-01  # K K+
    106     106    1   1.000000 -1.029426e+01  1.063092e+01 -3.000001e+01  # K K+
    107     107    1   1.000000  9.002459e+00 -2.831520e+00  2.961210e+01  # K K+
    108     108    1   1.000000  5.094372e+00 -1.193932e+00  4.846048e+00  # K K+
    109     109    1   1.000000 -1.081127e+01  3.556350e+00  1.237597e+00  # K K+
    110     110    1   1.000000  1.373864e+01 -8.118460e-01 -4.231831e+00  # K K+
    111     111    1   1.000000  1.500024e+01 -8.935560e-01  2.209781e+01  # K K+
    112     112    1   1.000000 -1.734599e+00 -2.267614e+00  1.955915e+01  # K K+
    113     113    1   1.000000 -1.500334e+01  7.227285e+00  5.597811e+00  # K K+
    114     114    1   1.000000 -9.728860e+00  1.086777e+01  3.000174e+01  # K K+
    115     115    1   1.000000  6.371074e+00  1.306611e+01  2.634687e+01  # K K+
    116     116    1   1.000000  1.796817e+00  1.827723e+00  6.440141e+00  # K K+
    117     117    1   1.000000  7.363313e+00  7.377015e+00  1.454551e+01  # K K+
    118     118    1   1.000000  1.144989e+01  5.548638e+00  7.112711e+00  # K K+
    119     119    1   1.000000  2.121001e+00 -1.319059e+00  1.318559e+01  # K K+
    120     120    1   1.000000 -1.370380e+01  1.024348e+01 -9.211017e+00  # K K+
    121     121    1   1.000000  3.926150e-01  1.500895e+01 -1.009976e+01  # K K+
    122     122    1   1.000000  9.024539e+00 -3.812758e+00  1.325160e+01  # K K+
    123     123    1   1.000000 -8.790635e+00  1.077344e+01  1.008497e+01  # K K+
    124     124    1   1.000000  1.437104e+01  1.049632e+01 -1.153434e+01  # K K+
    125     125    1   1.000000 -4.018254e+00  7.667114e+00  1.420307e+01  # K K+
    126     126    1   1.000000  9.394631e+00 -5.108028e+00 -1.714243e+00  # K K+
    127     127    1   1.000000 -1.171155e+01  1.500274e+01 -1.827446e+01  # K K+
    128     128    1   1.000000  3.333700e+00  1.242322e+01 -1.997687e+01  # K K+
    129     129    1   1.000000  3.002396e+00  8.577721e+00 -2.767631e+01  # K K+
    130     130    1   1.000000  2.368130e+00  1.364728e+01  1.722281e+01  # K K+
    131     131    1   1.000000  5.541400e-01 -8.600194e+00 -4.138236e+00  # K K+
    132     132    1   1.000000  1.098645e+00 -1.499256e+01  1.591454e+01  # K K+
    133     133    1   1.000000  1.242779e+01 -9.721331e+00 -1.352442e+01  # K K+
    134     134    1   1.000000  2.503778e+00  4.486561e+00 -1.871834e+01  # K K+
    135     135    1   1.000000  1.150181e+01  9.079946e+00  2.594008e+01  # K K+
    136     136    1   1.000000 -1.500696e+01 -3.598052e+00  2.186707e+01  # K K+
    137     137    1   1.000000  7.118571e+00  1.075371e+01 -1.415460e+00  # K K+
    138     138    1   1.000000 -1.341421e+01  4.976391e+00 -8.574865e+00  # K K+
    139     139    1   1.000000  1.065532e+01 -6.796385e+00  1.589202e+01  # K K+
    140     140    1   1.000000 -4.212071e+00  1.631150e-01 -8.333288e+00  # K K+
    141     141    1   1.000000 -1.104561e+01 -1.075801e+01 -5.398474e+00  # K K+
    142     142    1   1.000000 -9.725939e+00  6.231525e+00 -2.753896e+01  # K K+
    143     143    1   1.000000 -1.013512e+01 -3.059160e-01  5.274812e+00  # K K+
    144     144    1   1.000000  1.483414e+01 -6.097942e+00  1.206857e+01  # K K+
    145     145    1   1.000000  1.519000e-03  4.240070e+00 -2.759380e+01  # K K+
    146     146    1   1.000000 -5.292251e+00  9.383021e+00 -2.588142e+01  # K K+
    147     147    1   1.000000 -7.701757e+00 -1.427787e+01 -8.998394e+00  # K K+
    148     148    1   1.000000 -1.274320e+01 -1.118424e+01 -7.466700e+00  # K K+
    149     149    1   1.000000 -6.360600e-01 -7.841900e-02  9.195830e+00  # K K+
    150     150    1   1.000000  1.500117e+01  1.313161e+01 -3.134490e+00  # K K+
    151     151    1   1.000000  1.193291e+01 -1.819603e+00  5.936403e+00  # K K+
    152     152    1   1.000000 -1.386337e+01  1.500902e+01  1.680150e+01  # K K+
    153     153    1   1.000000 -1.370731e+01 -6.121607e+00 -2.212582e+01  # K K+
    154     154    1   1.000000  1.271752e+01 -1.249546e+00  2.316920e+01  # K K+
    155     155    1   1.000000  1.196846e+01  1.082474e+01 -3.000235e+01  # K K+
    156     156    1   1.000000 -1.498950e+01 -7.966593e+00  2.811678e+01  # K K+
    157     157    1   1.000000  4.493263e+00 -1.183907e+01  1.814033e+01  # K K+
    158     158    1   1.000000  1.150881e+01 -1.156892e+01 -9.697623e+00  # K K+
    159     159    1   1.000000 -7.355463e+00  6.464059e+00  2.402625e+01  # K K+
    160     160    1   1.000000  3.377032e+00  1.500562e+01 -1.877594e+00  # K K+
    161     161    1   1.000000 -1.758795e+00 -1.061609e+01  2.377975e+00  # K K+
    162     162    1   1.000000 -1.029287e+01 -9.560400e-02 -5.166282e+00  # K K+
    163     163    1   1.000000  7.723889e+00  1.500063e+01  1.663900e+00  # K K+
    164     164    1   1.000000  9.043914e+00  8.852861e+00 -1.542912e+01  # K K+
    165     165    1   1.000000  9.534868e+00 -6.037560e+00  8.695361e+00  # K K+
    166     166    1   1.000000  4.115190e+00  7.144790e-01 -2.550476e+01  # K K+
    167     167    1   1.000000  1.396996e+01 -1.278636e+01 -2.799781e+01  # K K+
    168     168    1   1.000000 -3.533076e+00  5.256003e+00 -2.181118e+01  # K K+
    169     169    1   1.000000 -3.677409e+00  1.427938e+01 -8.584494e+00  # K K+
    170     170    1   1.000000  1.721599e+00 -6.177497e+00 -2.763196e+01  # K K+
    171     171    1   1.000000 -1.298643e+01  1.272440e+01  2.401766e+01  # K K+
    172     172    1   1.000000  1.448074e+01 -7.657851e+00 -1.064440e+01  # K K+
    173     173    1   1.000000  1.901282e+00  1.306246e+01 -1.661346e+01  # K K+
    174     174    1   1.000000  7.503369e+00  2.118176e+00  1.143712e+00  # K K+
    175     175    1   1.000000  8.826500e+00  8.599954e+00  2.128237e+01  # K K+
    176     176    1   1.000000  2.564934e+00 -7.820033e+00  9.728398e+00  # K K+
    177     177    1   1.000000  6.416580e-01 -2.441910e-01  2.087148e+01  # K K+
    178     178    1   1.000000 -6.750340e-01  1.020228e+01 -2.552522e+01  # K K+
    179     179    1   1.000000 -6.246290e+00 -1.000501e+01 -4.801604e+00  # K K+
    180     180    1   1.000000  1.500009e+01  8.339311e+00  5.741364e+00  # K K+
    181     181    1   1.000000 -4.641710e+00 -6.510514e+00  2.383931e+01  # K K+
    182     182    1   1.000000 -5.582935e+00 -4.897773e+00 -3.795298e+00  # K K+
    183     183    1   1.000000 -9.823410e-01 -1.117688e+01  3.000127e+01  # K K+
    184     184    1   1.000000  1.322583e+01  2.031305e+00  2.784836e+01  # K K+
    185     185    1   1.000000 -1.500690e+01  1.500130e+01 -1.065200e-01  # K K+
    186     186    1   1.000000 -7.391942e+00  4.536910e+00  1.548373e+01  # K K+
    187     187    1   1.000000  8.034164e+00  1.500113e+01 -1.290560e+00  # K K+
    188     188    1   1.000000 -1.430212e+01  3.706520e+00  1.564787e+01  # K K+
    189     189    1   1.000000 -6.902210e+00 -5.321036e+00 -2.595587e+01  # K K+
    190     190    1   1.000000 -1.302825e+01 -1.050299e+01  1.727469e+01  # K K+
    191     191    1   1.000000  1.258673e+01 -1.200057e+01 -1.203933e+01  # K K+
    192     192    1   1.000000  1.816407e+00 -6.902449e+00 -8.267147e+00  # K K+
    193     193    1   1.000000 -1.661329e+00 -1.501890e+01  2.891955e+01  # K K+
    194     194    1   1.000000  5.789394e+00  9.355123e+00 -2.761289e+01  # K K+
    195     195    1   1.000000  1.083657e+01 -8.911014e+00 -8.120649e+00  # K K+
    196     196    1   1.000000  9.495943e+00  1.132858e+01 -1.932374e+00  # K K+
    197     197    1   1.000000 -4.239032e+00 -1.060250e+00  6.069692e+00  # K K+
    198     198    1   1.000000 -1.040639e+00 -1.420718e+00  1.731169e+01  # K K+
    199     199    1   1.000000 -1.498817e+00 -2.616033e+00 -2.550423e+01  # K K+
    200     200    1   1.000000 -1.082691e+01 -7.642640e-01 -2.279782e+00  # K K+
    201     201    1   1.000000 -2.383794e+00  1.136562e+01  2.714376e+01  # K K+
    202     202    1   1.000000 -1.468232e+01  8.903049e+00  7.424851e+00  # K K+
    203     203    1   1.000000 -1.500771e+01 -1.289662e+01  2.777072e+00  # K K+
    204     204    1   1.000000 -1.200645e+01  7.160299e+00  1.722824e+01  # K K+
    205     205    1   1.000000  4.566853e+00 -9.799066e+00 -1.938997e+00  # K K+
    206     206    1   1.000000 -6.827580e-01 -1.287591e+01 -2.243747e+01  # K K+
    207     207    1   1.000000  8.304970e-01  4.636740e-01 -2.273360e+01  # K K+
    208     208    1   1.000000 -6.076450e+00 -6.710740e+00  1.879080e+01  # K K+
    209     209    1   1.000000 -4.780087e+00 -8.291362e+00  2.022904e+01  # K K+
    210     210    1   1.000000  6.582343e+00 -2.305108e+00  6.519564e+00  # K K+
    211     211    1   1.000000 -1.079926e+01 -6.877240e+00  1.876833e+01  # K K+
    212     212    1   1.000000  3.316690e-01  7.741720e-01  1.343761e+01  # K K+
    213     213    1   1.000000  9.155521e+00  1.777133e+00 -2.027751e+01  # K K+
    214     214    1   1.000000 -9.433925e+00 -1.273734e+01 -5.420585e+00  # K K+
    215     215    1   1.000000  6.768363e+00  3.634162e+00 -1.331927e+01  # K K+
    216     216    1   1.000000 -8.200972e+00 -1.254826e+01  1.017638e+01  # K K+
    217     217    1   1.000000 -8.759487e+00  1.341803e+01 -2.320803e+01  # K K+
    218     218    1   1.000000  1.026044e+01  1.500811e+01 -5.604390e+00  # K K+
    219     219    1   1.000000 -7.746670e-01 -2.417042e+00  2.450915e+01  # K K+
    220     220    1   1.000000 -2.455011e+00 -5.431328e+00  1.074995e+01  # K K+
    221     221    1   1.000000 -3.193500e-01 -1.753150e+00 -2.770932e+01  # K K+
    222     222    1   1.000000 -1.031231e+01  1.500191e+01 -1.620298e+01  # K K+
    223     223    1   1.000000  1.047541e+01  1.182408e+01  2.970285e+00  # K K+
    224     224    1   1.000000 -1.262231e+01 -1.500579e+01  3.460001e+00  # K K+
    225     225    1   1.000000  1.443818e+01 -1.159708e+01 -2.019872e+01  # K K+
    226     226    1   1.000000 -1.242067e+01 -1.821768e+00 -2.309205e+01  # K K+
    227     227    1   1.000000 -9.420580e+00 -6.047082e+00 -1.953775e+01  # K K+
    228     228    1   1.000000 -5.208265e+00 -7.334982e+00  1.653112e+01  # K K+
    229     229    1   1.000000 -7.268784e+00  1.882587e+00 -5.474324e+00  # K K+
    230     230    1   1.000000  1.253616e+01  1.289956e+01  1.779436e+01  # K K+
    231     231    1   1.000000  7.943803e+00 -2.391010e+00 -7.800484e+00  # K K+
    232     232    1   1.000000  1.363743e+01  9.420308e+00  2.463866e+01  # K K+
    233     233    1   1.000000 -7.280229e+00  2.019450e+00  2.157324e+01  # K K+
    234     234    1   1.000000 -9.892960e+00 -9.470213e+00  4.086601e+00  # K K+
    235     235    1   1.000000 -2.193115e+00 -3.333933e+00 -6.592669e+00  # K K+
    236     236    1   1.000000 -1.021048e+01  7.416079e+00  1.271269e+01  # K K+
    237     237    1   1.000000  9.131084e+00  6.083700e-02  2.136540e-01  # K K+
    238     238    1   1.000000  5.494196e+00  1.201597e+01  1.548668e+01  # K K+
    239     239    1   1.000000 -1.500475e+01 -5.989541e+00  2.605853e+01  # K K+
    240     240    1   1.000000  7.765831e+00  6.593480e+00  2.990597e+01  # K K+
    241     241    1   1.000000 -5.644297e+00 -8.982044e+00 -2.238161e+01  # K K+
    242     242    1   1.000000  1.131775e+01 -3.195156e+00  1.805519e+01  # K K+
    243     243    1   1.000000 -4.288793e+00  9.726562e+00  1.559413e+01  # K K+
    244     244    1   1.000000 -1.376387e+01 -1.500009e+01 -2.049429e+00  # K K+
    245     245    1   1.000000 -1.220570e-01 -3.580628e+00  1.817181e+01  # K K+
    246     246    1   1.000000  8.062009e+00  1.016258e+01 -2.827337e+01  # K K+
    247     247    1   1.000000  5.752593e+00  5.933741e+00  2.214345e+01  # K K+
    248     248    1   1.000000  9.515870e+00 -1.018365e+01 -6.346166e+00  # K K+
    249     249    1   1.000000 -4.573223e+00  1.500397e+01  1.056193e+01  # K K+
    250     250    1   1.000000  2.034771e+00  6.420009e+00 -2.427001e+01  # K K+
    251     251    1   1.000000 -7.928253e+00 -1.341194e+00  2.534682e+01  # K K+
    252     252    1   1.000000 -1.490653e+01  5.336131e+00  3.965686e+00  # K K+
    253     253    1   1.000000  5.480091e+00  1.225804e+01 -1.262538e+01  # K K+
    254     254    1   1.000000  5.521914e+00 -1.500146e+01 -3.599892e+00  # K K+
    255     255    1   1.000000 -3.276077e+00 -1.251169e+01  1.597454e+01  # K K+
    256     256    1   1.000000 -1.042934e+01 -2.070726e+00  2.109796e+01  # K K+
    257     257    1   1.000000  1.115015e+01 -1.264840e-01  1.319027e+01  # K K+
    258     258    1   1.000000 -8.049290e+00  1.254082e+01 -2.543870e+01  # K K+
    259     259    1   1.000000  1.186034e+01  1.500602e+01 -2.722816e+01  # K K+
    260     260    1   1.000000 -3.751110e-01 -1.905774e+00 -5.641554e+00  # K K+
    261     261    1   1.000000  9.180429e+00  5.239605e+00  6.110777e+00  # K K+
    262     262    1   1.000000 -1.645492e+00 -1.076019e+01 -2.139253e+01  # K K+
    263     263    1   1.000000 -1.500326e+01 -8.946645e+00  2.554514e+01  # K K+
    264     264    1   1.000000  1.303658e+01  4.069008e+00 -1.801146e+01  # K K+
    265     265    1   1.000000 -1.288993e+01  1.052923e+01  1.546134e+01  # K K+
    266     266    1   1.000000  9.696133e+00  1.500283e+01 -1.781019e+01  # K K+
    267     267    1   1.000000  5.509850e+00 -3.706713e+00 -2.278981e+00  # K K+
    268     268    1   1.000000  5.559641e+00 -1.500161e+01  1.516783e+01  # K K+
    269     269    1   1.000000  1.501626e+01  5.338231e+00 -2.284775e+01  # K K+
    270     270    1   1.000000  1.082589e+01  1.223268e+01  2.302031e+01  # K K+
    271     271    1   1.000000  9.242386e+00 -1.006681e+01  3.199278e+00  # K K+
    272     272    1   1.000000 -1.089113e+01 -1.260611e+01 -1.748845e+01  # K K+
    273     273    1   1.000000  1.500693e+01 -1.470772e+00  4.652323e+00  # K K+
    274     274    1   1.000000 -2.568717e+00  2.112179e+00  9.548103e+00  # K K+
    275     275    1   1.000000  2.625940e-01  6.798230e-01  4.834456e+00  # K K+
    276     276    1   1.000000  7.239974e+00  4.298850e-01  2.385849e+01  # K K+
    277     277    1   1.000000  2.018899e+00  6.682685e+00  2.692596e+01  # K K+
    278     278    1   1.000000  4.786615e+00  1.645291e+00  1.122187e+01  # K K+
    279     279    1   1.000000  5.915934e+00  1.195749e+01 -6.108644e+00  # K K+
    280     280    1   1.000000  1.261521e+01 -2.113242e+00  2.556350e+01  # K K+
    281     281    1   1.000000 -1.206342e+01  4.661379e+00  1.725860e+01  # K K+
    282     282    1   1.000000  6.069539e+00  9.169849e+00 -2.142618e+01  # K K+
    283     283    1   1.000000  1.292939e+01  4.140708e+00 -2.050786e+01  # K K+
    284     284    1   1.000000  9.506744e+00 -1.173367e+01  2.705023e+01  # K K+
    285     285    1   1.000000 -9.570107e+00  1.422070e-01 -3.082390e-01  # K K+
    286     286    1   1.000000  1.078268e+01  5.925736e+00 -2.436789e+01  # K K+
    287     287    1   1.000000 -2.760388e+00 -1.695430e-01  1.599787e+01  # K K+
    288     288    1   1.000000 -7.189806e+00 -1.206423e+01  2.565561e+01  # K K+
    289     289    1   1.000000 -3.528815e+00 -1.304727e+01 -1.505234e+01  # K K+
    290     290    1   1.000000 -1.373997e+01 -8.854881e+00 -1.468447e+01  # K K+
    291     291    1   1.000000 -1.045109e+01 -8.301383e+00 -1.332388e+01  # K K+
    292     292    1   1.000000  3.824049e+00 -2.445093e+00  3.092913e+00  # K K+
    293     293    1   1.000000 -8.567764e+00  1.218796e+00  2.356091e+01  # K K+
    294     294    1   1.000000 -5.969630e+00 -1.459859e+00 -8.308950e-01  # K K+
    295     295    1   1.000000  6.301930e+00 -9.656700e-02  1.626351e+01  # K K+
    296     296    1   1.000000  2.879628e+00  4.091840e-01  2.455526e+01  # K K+
    297     297    1   1.000000 -1.296476e+01  1.130360e+01  1.803607e+01  # K K+
    298     298    1   1.000000  1.303766e+01  2.988230e-01 -1.129585e+01  # K K+
    299     299    1   1.000000 -1.500062e+01 -7.647615e+00 -3.534061e+00  # K K+
    300     300    1   1.000000 -2.544943e+00 -2.232794e+00 -4.376064e+00  # K K+
    301     301    1   1.000000 -7.644493e+00 -1.254862e+01 -2.518729e+01  # K K+
    302     302    1   1.000000  1.073857e+01 -1.288608e+01  1.452288e+01  # K K+
    303     303    1   1.000000  9.379855e+00  1.398407e+00 -1.781670e+01  # K K+
    304     304    1   1.000000  3.419876e+00 -4.616899e+00 -1.751463e+01  # K K+
    305     305    1   1.000000 -8.547529e+00 -1.142987e+01  2.765649e+01  # K K+
    306     306    1   1.000000 -2.109066e+00 -1.500071e+01 -1.809075e+01  # K K+
    307     307    1   1.000000 -1.290325e+01  4.990652e+00  1.035021e+01  # K K+
    308     308    1   1.000000 -2.590622e+00  1.138629e+01  3.907850e-01  # K K+
    309     309    1   1.000000  1.226123e+01 -7.699030e+00  2.591090e+01  # K K+
    310     310    1   1.000000 -1.219992e+00 -1.267600e-01  2.254387e+00  # K K+
    311     311    1   1.000000  4.998263e+00 -1.283568e+01  4.347027e+00  # K K+
    312     312    1   1.000000  9.367922e+00 -3.667430e+00  2.724579e+01  # K K+
    313     313    1   1.000000  9.066025e+00 -7.347360e+00  3.000063e+01  # K K+
    314     314    1   1.000000 -6.031922e+00 -5.178580e-01 -6.760517e+00  # K K+
    315     315    1   1.000000 -1.500349e+01  3.497317e+00 -3.000249e+01  # K K+
    316     316    1   1.000000 -1.337288e+00 -1.269820e+01  2.804950e+01  # K K+
    317     317    1   1.000000  8.003449e+00 -3.245954e+00  1.547595e+00  # K K+
    318     318    1   1.000000  5.703781e+00 -8.928461e+00  2.094434e+01  # K K+
    319     319    1   1.000000  4.305161e+00 -8.781435e+00  1.143535e+01  # K K+
    320     320    1   1.000000 -3.643621e+00  8.658709e+00 -1.890846e+01  # K K+
    321     321    1   1.000000 -9.226320e+00 -6.253940e-01  3.000328e+01  # K K+
    322     322    1   1.000000 -5.612901e+00  8.169765e+00 -1.518245e+01  # K K+
    323     323    1   1.000000  1.191848e+01  1.256121e+01  7.631881e+00  # K K+
    324     324    1   1.000000  8.017836e+00 -6.420671e+00  1.898331e+01  # K K+
    325     325    1   1.000000 -9.031769e+00 -4.991404e+00 -2.799968e+01  # K K+
    326     326    1   1.000000 -1.229953e+01  6.429036e+00  3.656605e+00  # K K+
    327     327    1   1.000000  8.031873e+00  2.979683e+00 -9.380338e+00  # K K+
    328     328    1   1.000000  2.270398e+00 -3.649220e-01 -1.897710e+01  # K K+
    329     329    1   1.000000  9.545913e+00  1.500231e+01 -1.039265e+01  # K K+
    330     330    1   1.000000 -2.592126e+00  1.501082e+01 -3.777823e+00  # K K+
    331     331    2   0.423800  3.699960e+00 -3.104500e-01 -1.692774e+01  # Hw SPCE
    332     331    3  -0.847600  4.658816e+00 -3.214950e-01 -1.664407e+01  # Ow SPCE
    333     331    2   0.423800  5.232212e+00 -5.910760e-01 -1.741772e+01  # Hw SPCE
    334     332    2   0.423800  8.986539e+00 -6.633240e-01 -2.079176e+01  # Hw SPCE
    335     332    3  -0.847600  8.434344e+00 -5.240550e-01 -2.161376e+01  # Ow SPCE
    336     332    2   0.423800  9.012634e+00 -1.667690e-01 -2.234719e+01  # Hw SPCE
    337     333    2   0.423800 -1.481544e+01  8.888986e+00  1.936336e+01  # Hw SPCE
    338     333    3  -0.847600 -1.500896e+01  7.984881e+00  1.898238e+01  # Ow SPCE
    339     333    2   0.423800 -1.416207e+01  7.580446e+00  1.863709e+01  # Hw SPCE
    340     334    2   0.423800  6.790325e+00 -1.501361e+01  2.515687e+01  # Hw SPCE
    341     334    3  -0.847600  6.007003e+00 -1.460741e+01  2.468633e+01  # Ow SPCE
    342     334    2   0.423800  5.161236e+00 -1.500267e+01  2.504473e+01  # Hw SPCE
    343     335    2   0.423800  4.786424e+00 -6.980671e+00 -1.913829e+01  # Hw SPCE
    344     335    3  -0.847600  5.235270e+00 -7.201649e+00 -1.827243e+01  # Ow SPCE
    345     335    2   0.423800  4.780447e+00 -6.713969e+00 -1.752724e+01  # Hw SPCE
    346     336    2   0.423800  4.034586e+00  9.568587e+00 -3.000255e+01  # Hw SPCE
    347     336    3  -0.847600  3.363637e+00  1.017026e+01 -2.956918e+01  # Ow SPCE
    348     336    2   0.423800  3.392842e+00  1.107018e+01 -3.000426e+01  # Hw SPCE
    349     337    2   0.423800 -9.812230e-01  1.621500e-01 -1.236337e+01  # Hw SPCE
    350     337    3  -0.847600 -1.940523e+00 -2.008000e-03 -1.259315e+01  # Ow SPCE
    351     337    2   0.423800 -2.198173e+00 -9.253410e-01 -1.230842e+01  # Hw SPCE
    352     338    2   0.423800 -8.054343e+00 -7.944502e+00  4.935838e+00  # Hw SPCE
    353     338    3  -0.847600 -7.555980e+00 -8.738738e+00  4.588241e+00  # Ow SPCE
    354     338    2   0.423800 -7.666017e+00 -9.504670e+00  5.221674e+00  # Hw SPCE
    355     339    2   0.423800  1.322379e+01 -1.319664e+01  6.990220e-01  # Hw SPCE
    356     339    3  -0.847600  1.358834e+01 -1.311231e+01  1.626381e+00  # Ow SPCE
    357     339    2   0.423800  1.290833e+01 -1.267265e+01  2.213137e+00  # Hw SPCE
    358     340    2   0.423800 -8.044027e+00  1.964357e+00  1.919345e+01  # Hw SPCE
    359     340    3  -0.847600 -8.432611e+00  2.556193e+00  1.848724e+01  # Ow SPCE